                         Program Version 4.2.0 -  RELEASE  -
|  1> ! B3LYP OPT 6-31G(d) Grid4 TightSCF
|  2> %output
|  3>  Print [ P_Hirshfeld ] 1  # Hirshfeld Charge Population
|  4>  Print [ P_Mayer ] 1      # Mayer Bond Orders
|  5> end
|  6> * xyz 0 1
|  7> N -0.230558 0.966322 0.27992
|  8> C 0.272374 -0.251908 -0.0799001
|  9> C -0.536104 -1.34713 -0.344072
| 10> N -1.89041 -1.28163 -0.262709
| 11> C -2.39095 -0.0756708 0.0936121
| 12> C -1.581 1.01956 0.358091
| 13> C 1.75149 -0.37801 -0.185895
| 14> N 2.46099 0.760675 0.0863138
| 15> O 2.30208 -1.42633 -0.495719
| 16> H -0.121963 -2.30846 -0.629175
| 17> H -3.47155 -0.0117289 0.161626
| 18> H -2.00481 1.97669 0.642292
| 19> H 3.46909 0.746619 0.0335034
| 20> H 1.97131 1.61101 0.342112
| 21> **                         ****END OF INPUT****
 Total Charge           Charge          ....    0
 Multiplicity           Mult            ....    1
 Number of Electrons    NEL             ....   64
FINAL SINGLE POINT ENERGY      -432.776357463666
FINAL SINGLE POINT ENERGY      -432.778361138194
FINAL SINGLE POINT ENERGY      -432.778848917603
FINAL SINGLE POINT ENERGY      -432.778877468509
FINAL SINGLE POINT ENERGY      -432.778883419021
FINAL SINGLE POINT ENERGY      -432.778884635021
                    ***********************HURRAY********************

CARTESIAN COORDINATES (ANGSTROEM)
---------------------------------
  N     -0.241422    0.949297    0.271587
  C      0.271403   -0.239392   -0.079093
  C     -0.547518   -1.344334   -0.342155
  N     -1.880325   -1.272014   -0.257648
  C     -2.385717   -0.083494    0.092631
  C     -1.572616    1.022746    0.356323
  C      1.771185   -0.379316   -0.190241
  N      2.453909    0.760131    0.088900
  O      2.290004   -1.444158   -0.505994
  H     -0.101908   -2.293689   -0.624049
  H     -3.469066   -0.008425    0.165862
  H     -2.001682    1.981712    0.640023
  H      3.461814    0.751907    0.039699
  H      1.951929    1.599037    0.344155

 Multiplicity           Mult            ....    1
 Number of Electrons    NEL             ....   64
 Basis Dimension        Dim             ....  136

ORBITAL ENERGIES
----------------

  NO   OCC          E(Eh)            E(eV)
   0   2.0000     -19.111401      -520.0477
   1   2.0000     -14.363287      -390.8449
   2   2.0000     -14.354939      -390.6178
   3   2.0000     -14.348348      -390.4384
   4   2.0000     -10.289457      -279.9904
   5   2.0000     -10.240982      -278.6713
   6   2.0000     -10.239932      -278.6427
   7   2.0000     -10.238268      -278.5974
   8   2.0000     -10.233220      -278.4601
   9   2.0000      -1.033206       -28.1150
  10   2.0000      -0.990924       -26.9644
  11   2.0000      -0.923280       -25.1237
  12   2.0000      -0.900819       -24.5125
  13   2.0000      -0.791141       -21.5281
  14   2.0000      -0.685127       -18.6433
  15   2.0000      -0.668264       -18.1844
  16   2.0000      -0.601691       -16.3729
  17   2.0000      -0.553806       -15.0698
  18   2.0000      -0.531089       -14.4517
  19   2.0000      -0.516554       -14.0561
  20   2.0000      -0.487375       -13.2622
  21   2.0000      -0.455449       -12.3934
  22   2.0000      -0.445176       -12.1139
  23   2.0000      -0.421167       -11.4605
  24   2.0000      -0.399398       -10.8682
  25   2.0000      -0.393704       -10.7132
  26   2.0000      -0.337224        -9.1763
  27   2.0000      -0.321835        -8.7576
  28   2.0000      -0.280254        -7.6261
  29   2.0000      -0.272404        -7.4125
  30   2.0000      -0.267069        -7.2673
  31   2.0000      -0.245422        -6.6783
  32   0.0000      -0.067440        -1.8351
  33   0.0000      -0.042243        -1.1495
  34   0.0000       0.053519         1.4563
  35   0.0000       0.091119         2.4795
  36   0.0000       0.114788         3.1235

MULLIKEN ATOMIC CHARGES
-----------------------
   0 N :   -0.395089
   1 C :    0.183243
   2 C :   -0.008781
   3 N :   -0.313605
   4 C :    0.006562
   5 C :    0.012313
   6 C :    0.514951
   7 N :   -0.750351
   8 O :   -0.459746
   9 H :    0.188860
  10 H :    0.157956
  11 H :    0.155394
  12 H :    0.346476
  13 H :    0.361818
Sum of atomic charges:    0.0000000

LOEWDIN ATOMIC CHARGES
----------------------
   0 N :   -0.105633
   1 C :   -0.018373
   2 C :   -0.055594
   3 N :   -0.092219
   4 C :   -0.077519
   5 C :   -0.085246
   6 C :    0.095415
   7 N :   -0.354293
   8 O :   -0.267078
   9 H :    0.157252
  10 H :    0.140011
  11 H :    0.138982
  12 H :    0.260461
  13 H :    0.263833

  Mayer bond orders larger than 0.100000
B(  0-N ,  1-C ) :   1.3738 B(  0-N ,  5-C ) :   1.4597 B(  1-C ,  2-C ) :   1.3433
B(  1-C ,  4-C ) :   0.1072 B(  1-C ,  6-C ) :   0.9441 B(  2-C ,  3-N ) :   1.4293
B(  2-C ,  5-C ) :   0.1040 B(  2-C ,  9-H ) :   0.9097 B(  3-N ,  4-C ) :   1.4567
B(  4-C ,  5-C ) :   1.3745 B(  4-C , 10-H ) :   0.9268 B(  5-C , 11-H ) :   0.9260
B(  6-C ,  7-N ) :   1.1382 B(  6-C ,  8-O ) :   1.8861 B(  7-N , 12-H ) :   0.8284
B(  7-N , 13-H ) :   0.7944

FINAL SINGLE POINT ENERGY      -432.778884848978

DIPOLE MOMENT
-------------
                                X             Y             Z
Electronic contribution:      0.18813      -1.54264      -0.43285
Nuclear contribution   :     -0.55617       2.93042       0.83206
                        -----------------------------------------
Total Dipole Moment    :     -0.36804       1.38778       0.39921
                        -----------------------------------------
Magnitude (a.u.)       :      1.49022
Magnitude (Debye)      :      3.78784

Rotational constants in cm-1:     0.131256     0.043065     0.032426
Rotational constants in MHz :  3934.959415  1291.041496   972.100132

                             ****ORCA TERMINATED NORMALLY****
TOTAL RUN TIME: 0 days 0 hours 27 minutes 33 seconds 87 msec
