                         Program Version 4.2.1 -  RELEASE  -
|  1> ! B3LYP 6-31G(d) Grid4 TightSCF PAL8
|  2> ! Opt NumFreq
|  3> %elprop Polar 1
|  4> 		end
|  5> * xyz 0 1
|  6>   N     -0.241422    0.949297    0.271587
|  7>   C      0.271403   -0.239392   -0.079093
|  8>   C     -0.547518   -1.344334   -0.342155
|  9>   N     -1.880325   -1.272014   -0.257648
| 10>   C     -2.385717   -0.083494    0.092631
| 11>   C     -1.572616    1.022746    0.356323
| 12>   C      1.771185   -0.379316   -0.190241
| 13>   N      2.453909    0.760131    0.088900
| 14>   O      2.290004   -1.444158   -0.505994
| 15>   H     -0.101908   -2.293689   -0.624049
| 16>   H     -3.469066   -0.008425    0.165862
| 17>   H     -2.001682    1.981712    0.640023
| 18>   H      3.461814    0.751907    0.039699
| 19>   H      1.951929    1.599037    0.344155
| 20> **                         ****END OF INPUT****
 Total Charge           Charge          ....    0
 Multiplicity           Mult            ....    1
 Number of Electrons    NEL             ....   64
FINAL SINGLE POINT ENERGY      -432.778884848763
                    ***********************HURRAY********************

CARTESIAN COORDINATES (ANGSTROEM)
---------------------------------
  N     -0.241442    0.949207    0.272065
  C      0.271419   -0.239442   -0.078648
  C     -0.547513   -1.344257   -0.342109
  N     -1.880346   -1.271950   -0.257961
  C     -2.385734   -0.083456    0.092381
  C     -1.572611    1.022678    0.356503
  C      1.771254   -0.379611   -0.189089
  N      2.453925    0.760099    0.088897
  O      2.289972   -1.444112   -0.506317
  H     -0.101923   -2.293662   -0.623880
  H     -3.469113   -0.008375    0.165252
  H     -2.001638    1.981671    0.640222
  H      3.461782    0.752159    0.038672
  H      1.951959    1.599057    0.344012

 Multiplicity           Mult            ....    1
 Number of Electrons    NEL             ....   64
 Basis Dimension        Dim             ....  136

ORBITAL ENERGIES
----------------

  NO   OCC          E(Eh)            E(eV)
   0   2.0000     -19.111397      -520.0475
   1   2.0000     -14.363281      -390.8447
   2   2.0000     -14.354937      -390.6177
   3   2.0000     -14.348360      -390.4387
   4   2.0000     -10.289463      -279.9905
   5   2.0000     -10.240982      -278.6713
   6   2.0000     -10.239929      -278.6426
   7   2.0000     -10.238266      -278.5974
   8   2.0000     -10.233212      -278.4599
   9   2.0000      -1.033188       -28.1145
  10   2.0000      -0.990932       -26.9646
  11   2.0000      -0.923289       -25.1240
  12   2.0000      -0.900835       -24.5130
  13   2.0000      -0.791138       -21.5280
  14   2.0000      -0.685127       -18.6433
  15   2.0000      -0.668261       -18.1843
  16   2.0000      -0.601706       -16.3733
  17   2.0000      -0.553817       -15.0701
  18   2.0000      -0.531092       -14.4518
  19   2.0000      -0.516555       -14.0562
  20   2.0000      -0.487372       -13.2621
  21   2.0000      -0.455444       -12.3933
  22   2.0000      -0.445179       -12.1139
  23   2.0000      -0.421154       -11.4602
  24   2.0000      -0.399398       -10.8682
  25   2.0000      -0.393692       -10.7129
  26   2.0000      -0.337229        -9.1765
  27   2.0000      -0.321840        -8.7577
  28   2.0000      -0.280253        -7.6261
  29   2.0000      -0.272403        -7.4125
  30   2.0000      -0.267071        -7.2674
  31   2.0000      -0.245422        -6.6783
  32   0.0000      -0.067437        -1.8351
  33   0.0000      -0.042237        -1.1493
  34   0.0000       0.053516         1.4562
  35   0.0000       0.091112         2.4793
  36   0.0000       0.114789         3.1236

MULLIKEN ATOMIC CHARGES
-----------------------
   0 N :   -0.395069
   1 C :    0.183244
   2 C :   -0.008803
   3 N :   -0.313589
   4 C :    0.006551
   5 C :    0.012303
   6 C :    0.514969
   7 N :   -0.750330
   8 O :   -0.459783
   9 H :    0.188855
  10 H :    0.157958
  11 H :    0.155390
  12 H :    0.346482
  13 H :    0.361821
Sum of atomic charges:   -0.0000000

LOEWDIN ATOMIC CHARGES
----------------------
   0 N :   -0.105627
   1 C :   -0.018380
   2 C :   -0.055594
   3 N :   -0.092220
   4 C :   -0.077517
   5 C :   -0.085253
   6 C :    0.095428
   7 N :   -0.354259
   8 O :   -0.267121
   9 H :    0.157249
  10 H :    0.140012
  11 H :    0.138980
  12 H :    0.260466
  13 H :    0.263836

  Mayer bond orders larger than 0.100000
B(  0-N ,  1-C ) :   1.3738 B(  0-N ,  5-C ) :   1.4598 B(  1-C ,  2-C ) :   1.3434
B(  1-C ,  4-C ) :   0.1072 B(  1-C ,  6-C ) :   0.9441 B(  2-C ,  3-N ) :   1.4293
B(  2-C ,  5-C ) :   0.1040 B(  2-C ,  9-H ) :   0.9097 B(  3-N ,  4-C ) :   1.4567
B(  4-C ,  5-C ) :   1.3745 B(  4-C , 10-H ) :   0.9268 B(  5-C , 11-H ) :   0.9260
B(  6-C ,  7-N ) :   1.1382 B(  6-C ,  8-O ) :   1.8860 B(  7-N , 12-H ) :   0.8284
B(  7-N , 13-H ) :   0.7944

FINAL SINGLE POINT ENERGY      -432.778884818588

DIPOLE MOMENT
-------------
                                X             Y             Z
Electronic contribution:      0.18827      -1.54293      -0.43084
Nuclear contribution   :     -0.55619       2.93084       0.83018
                        -----------------------------------------
Total Dipole Moment    :     -0.36792       1.38791       0.39933
                        -----------------------------------------
Magnitude (a.u.)       :      1.49034
Magnitude (Debye)      :      3.78816

VIBRATIONAL FREQUENCIES
-----------------------

Scaling factor for frequencies =  1.000000000 (already applied!)

   0:         0.00 cm**-1
   1:         0.00 cm**-1
   2:         0.00 cm**-1
   3:         0.00 cm**-1
   4:         0.00 cm**-1
   5:         0.00 cm**-1
   6:        74.91 cm**-1
   7:       157.18 cm**-1
   8:       216.32 cm**-1
   9:       271.33 cm**-1
  10:       379.60 cm**-1
  11:       394.12 cm**-1
  12:       456.89 cm**-1
  13:       497.32 cm**-1
  14:       609.01 cm**-1
  15:       632.74 cm**-1
  16:       649.79 cm**-1
  17:       741.42 cm**-1
  18:       795.51 cm**-1
  19:       811.36 cm**-1
  20:       883.23 cm**-1
  21:       981.74 cm**-1
  22:       995.08 cm**-1
  23:      1039.52 cm**-1
  24:      1078.36 cm**-1
  25:      1103.37 cm**-1
  26:      1192.85 cm**-1
  27:      1201.96 cm**-1
  28:      1254.79 cm**-1
  29:      1324.02 cm**-1
  30:      1385.92 cm**-1
  31:      1452.20 cm**-1
  32:      1514.54 cm**-1
  33:      1591.51 cm**-1
  34:      1618.56 cm**-1
  35:      1630.75 cm**-1
  36:      1802.06 cm**-1
  37:      3179.69 cm**-1
  38:      3197.63 cm**-1
  39:      3226.04 cm**-1
  40:      3588.54 cm**-1
  41:      3722.74 cm**-1

IR SPECTRUM
-----------

 Mode    freq (cm**-1)   T**2         TX         TY         TZ
-------------------------------------------------------------------
   6:        74.91    0.038901  ( -0.099256   0.013934   0.169868)
   7:       157.18    1.524018  (  0.027001   0.214901  -1.215363)
   8:       216.32   12.193229  ( -3.481323   0.143531   0.230252)
   9:       271.33  217.794028  ( -0.725861   3.932958 -14.205597)
  10:       379.60    0.684818  (  0.295496  -0.734796  -0.239950)
  11:       394.12    0.044383  ( -0.179499   0.107377   0.025173)
  12:       456.89   53.340477  (  0.369295  -1.900111   7.042278)
  13:       497.32    5.952062  ( -2.293878   0.763070   0.328498)
  14:       609.01   12.440547  (  3.417578   0.867925   0.086095)
  15:       632.74    0.107524  (  0.177071   0.022240   0.275091)
  16:       649.79    6.265517  ( -2.398450  -0.712190  -0.075761)
  17:       741.42    4.938897  ( -0.016486   0.589664  -2.142643)
  18:       795.51    7.786805  (  0.345740  -0.833095   2.640686)
  19:       811.36    2.667510  (  1.564025   0.469278   0.033346)
  20:       883.23    5.469855  (  0.148091  -0.508827   2.277942)
  21:       981.74    0.419154  (  0.358112  -0.370556   0.391916)
  22:       995.08    0.460332  ( -0.326350   0.437310  -0.403221)
  23:      1039.52   32.531022  (  3.059363   4.686895   1.097421)
  24:      1078.36    8.582724  ( -0.620815   2.757658   0.769828)
  25:      1103.37    0.973065  (  0.887114   0.427808   0.055443)
  26:      1192.85   26.238211  ( -4.971967  -1.224325  -0.137037)
  27:      1201.96   15.718922  ( -3.570387  -1.694110  -0.318199)
  28:      1254.79    9.617367  (  3.086462  -0.214348  -0.212544)
  29:      1324.02    1.113371  ( -1.054640  -0.024142   0.022841)
  30:      1385.92  130.524559  (-11.079992  -2.778311  -0.198309)
  31:      1452.20   10.681536  (  0.352000   3.133023   0.861277)
  32:      1514.54    3.456524  (  1.047525  -1.460748  -0.474795)
  33:      1591.51    1.000259  (  0.124931   0.956723   0.263308)
  34:      1618.56  182.540856  (-11.153458  -7.478850  -1.485947)
  35:      1630.75   21.105800  (  4.571857   0.440035  -0.101435)
  36:      1802.06  277.498963  (  2.978347 -15.771142  -4.460886)
  37:      3179.69    3.236320  (  0.833543   1.539365   0.414585)
  38:      3197.63   39.384229  (  5.200353  -3.300033  -1.204299)
  39:      3226.04    1.649677  ( -0.143421  -1.185544  -0.472857)
  40:      3588.54   49.579204  (  2.382490   6.427017   1.611334)
  41:      3722.74   71.537559  ( -7.972321   2.619223   1.057982)

--------------------------
THERMOCHEMISTRY AT 298.15K
--------------------------

Temperature         ... 298.15 K
Pressure            ... 1.00 atm
Total Mass          ... 123.11 AMU

Throughout the following assumptions are being made:
  (1) The electronic state is orbitally nondegenerate
  (2) There are no thermally accessible electronically excited states
  (3) Hindered rotations indicated by low frequency modes are not
      treated as such but are treated as vibrations and this may
      cause some error
  (4) All equations used are the standard statistical mechanics
      equations for an ideal gas
  (5) All vibrations are strictly harmonic

freq.      74.91  E(vib)   ...       0.49
freq.     157.18  E(vib)   ...       0.40
freq.     216.32  E(vib)   ...       0.34
freq.     271.33  E(vib)   ...       0.29
freq.     379.60  E(vib)   ...       0.21
freq.     394.12  E(vib)   ...       0.20
freq.     456.89  E(vib)   ...       0.16
freq.     497.32  E(vib)   ...       0.14
freq.     609.01  E(vib)   ...       0.10
freq.     632.74  E(vib)   ...       0.09
freq.     649.79  E(vib)   ...       0.08
freq.     741.42  E(vib)   ...       0.06
freq.     795.51  E(vib)   ...       0.05
freq.     811.36  E(vib)   ...       0.05
freq.     883.23  E(vib)   ...       0.04
freq.     981.74  E(vib)   ...       0.02
freq.     995.08  E(vib)   ...       0.02
freq.    1039.52  E(vib)   ...       0.02
freq.    1078.36  E(vib)   ...       0.02
freq.    1103.37  E(vib)   ...       0.02
freq.    1192.85  E(vib)   ...       0.01
freq.    1201.96  E(vib)   ...       0.01
freq.    1254.79  E(vib)   ...       0.01
freq.    1324.02  E(vib)   ...       0.01
freq.    1385.92  E(vib)   ...       0.00
freq.    1452.20  E(vib)   ...       0.00
freq.    1514.54  E(vib)   ...       0.00
freq.    1591.51  E(vib)   ...       0.00
freq.    1618.56  E(vib)   ...       0.00
freq.    1630.75  E(vib)   ...       0.00
freq.    1802.06  E(vib)   ...       0.00
freq.    3179.69  E(vib)   ...       0.00
freq.    3197.63  E(vib)   ...       0.00
freq.    3226.04  E(vib)   ...       0.00
freq.    3588.54  E(vib)   ...       0.00
freq.    3722.74  E(vib)   ...       0.00

------------
INNER ENERGY
------------

The inner energy is: U= E(el) + E(ZPE) + E(vib) + E(rot) + E(trans)
    E(el)   - is the total energy from the electronic structure calculation
              = E(kin-el) + E(nuc-el) + E(el-el) + E(nuc-nuc)
    E(ZPE)  - the the zero temperature vibrational energy from the frequency calculation
    E(vib)  - the the finite temperature correction to E(ZPE) due to population
              of excited vibrational states
    E(rot)  - is the rotational thermal energy
    E(trans)- is the translational thermal energy

Summary of contributions to the inner energy U:
Electronic energy                ...   -432.77888482 Eh
Zero point energy                ...      0.10400426 Eh      65.26 kcal/mol
Thermal vibrational correction   ...      0.00452567 Eh       2.84 kcal/mol
Thermal rotational correction    ...      0.00141627 Eh       0.89 kcal/mol
Thermal translational correction ...      0.00141627 Eh       0.89 kcal/mol
-----------------------------------------------------------------------
Total thermal energy                   -432.66752235 Eh

Summary of corrections to the electronic energy:
(perhaps to be used in another calculation)
Total thermal correction                  0.00735822 Eh       4.62 kcal/mol
Non-thermal (ZPE) correction              0.10400426 Eh      65.26 kcal/mol
-----------------------------------------------------------------------
Total correction                          0.11136247 Eh      69.88 kcal/mol

--------
ENTHALPY
--------

The enthalpy is H = U + kB*T
                kB is Boltzmann's constant
Total free energy                 ...   -432.66752235 Eh
Thermal Enthalpy correction       ...      0.00094421 Eh       0.59 kcal/mol
-----------------------------------------------------------------------
Total Enthalpy                    ...   -432.66657814 Eh

Note: Only C1 symmetry has been detected, increase convergence thresholds
      if your molecule has a higher symmetry. Symmetry factor of 1.0 is
      used for the rotational entropy correction.

Note: Rotational entropy computed according to Herzberg
Infrared and Raman Spectra, Chapter V,1, Van Nostrand Reinhold, 1945
Point Group:  C1, Symmetry Number:   1
Rotational constants in cm-1:     0.131257     0.043064     0.032426

Vibrational entropy computed according to the QRRHO of S. Grimme
Chem.Eur.J. 2012 18 9955

-------
ENTROPY
-------

The entropy contributions are T*S = T*(S(el)+S(vib)+S(rot)+S(trans))
     S(el)   - electronic entropy
     S(vib)  - vibrational entropy
     S(rot)  - rotational entropy
     S(trans)- translational entropy
The entropies will be listed as mutliplied by the temperature to get
units of energy

Electronic entropy                ...      0.00000000 Eh      0.00 kcal/mol
Vibrational entropy               ...      0.00741687 Eh      4.65 kcal/mol
Rotational entropy                ...      0.01357289 Eh      8.52 kcal/mol
Translational entropy             ...      0.01916575 Eh     12.03 kcal/mol
-----------------------------------------------------------------------
Final entropy term                ...      0.04015552 Eh     25.20 kcal/mol

In case the symmetry of your molecule has not been determined correctly
or in case you have a reason to use a different symmetry number we print
out the resulting rotational entropy values for sn=1,12 :
 --------------------------------------------------------
|  sn= 1 | S(rot)=       0.01357289 Eh      8.52 kcal/mol|
|  sn= 2 | S(rot)=       0.01291844 Eh      8.11 kcal/mol|
|  sn= 3 | S(rot)=       0.01253561 Eh      7.87 kcal/mol|
|  sn= 4 | S(rot)=       0.01226398 Eh      7.70 kcal/mol|
|  sn= 5 | S(rot)=       0.01205329 Eh      7.56 kcal/mol|
|  sn= 6 | S(rot)=       0.01188115 Eh      7.46 kcal/mol|
|  sn= 7 | S(rot)=       0.01173560 Eh      7.36 kcal/mol|
|  sn= 8 | S(rot)=       0.01160953 Eh      7.29 kcal/mol|
|  sn= 9 | S(rot)=       0.01149832 Eh      7.22 kcal/mol|
|  sn=10 | S(rot)=       0.01139884 Eh      7.15 kcal/mol|
|  sn=11 | S(rot)=       0.01130885 Eh      7.10 kcal/mol|
|  sn=12 | S(rot)=       0.01122669 Eh      7.04 kcal/mol|
 --------------------------------------------------------

-------------------
GIBBS FREE ENERGY
-------------------

The Gibbs free energy is G = H - T*S

Total enthalpy                    ...   -432.66657814 Eh
Total entropy correction          ...     -0.04015552 Eh    -25.20 kcal/mol
-----------------------------------------------------------------------
Final Gibbs free energy         ...   -432.70673366 Eh

For completeness - the Gibbs free energy minus the electronic energy

                             ****ORCA TERMINATED NORMALLY****
TOTAL RUN TIME: 0 days 1 hours 15 minutes 58 seconds 408 msec
