                         Program Version 4.2.1 -  RELEASE  -
|  1> ! B3LYP IGLO-II Grid4 TightSCF PAL2
|  2> ! NMR AutoAux
|  3> * xyz 0 1
|  4>   N     -0.242446    0.943095    0.270204
|  5>   C      0.269252   -0.241050   -0.079175
|  6>   C     -0.547415   -1.341749   -0.341377
|  7>   N     -1.876019   -1.266459   -0.256470
|  8>   C     -2.380402   -0.081648    0.092732
|  9>   C     -1.569500    1.019193    0.355288
| 10>   C      1.770091   -0.379032   -0.189627
| 11>   N      2.449139    0.757921    0.088831
| 12>   O      2.288267   -1.437446   -0.504407
| 13>   H     -0.103212   -2.288382   -0.622355
| 14>   H     -3.460393   -0.005284    0.165928
| 15>   H     -1.996857    1.975429    0.638137
| 16>   H      3.455766    0.751632    0.039270
| 17>   H      1.943716    1.593790    0.343020
| 18> **                         ****END OF INPUT****

CARTESIAN COORDINATES (ANGSTROEM)
---------------------------------
  N     -0.242446    0.943095    0.270204
  C      0.269252   -0.241050   -0.079175
  C     -0.547415   -1.341749   -0.341377
  N     -1.876019   -1.266459   -0.256470
  C     -2.380402   -0.081648    0.092732
  C     -1.569500    1.019193    0.355288
  C      1.770091   -0.379032   -0.189627
  N      2.449139    0.757921    0.088831
  O      2.288267   -1.437446   -0.504407
  H     -0.103212   -2.288382   -0.622355
  H     -3.460393   -0.005284    0.165928
  H     -1.996857    1.975429    0.638137
  H      3.455766    0.751632    0.039270
  H      1.943716    1.593790    0.343020

 Total Charge           Charge          ....    0
 Multiplicity           Mult            ....    1
 Number of Electrons    NEL             ....   64
 Basis Dimension        Dim             ....  228

ORBITAL ENERGIES
----------------

  NO   OCC          E(Eh)            E(eV)
   0   2.0000     -19.098581      -519.6988
   1   2.0000     -14.355726      -390.6392
   2   2.0000     -14.346927      -390.3997
   3   2.0000     -14.342892      -390.2899
   4   2.0000     -10.288572      -279.9663
   5   2.0000     -10.242642      -278.7165
   6   2.0000     -10.239342      -278.6267
   7   2.0000     -10.237588      -278.5789
   8   2.0000     -10.233758      -278.4747
   9   2.0000      -1.049046       -28.5460
  10   2.0000      -1.005828       -27.3700
  11   2.0000      -0.935837       -25.4654
  12   2.0000      -0.911857       -24.8129
  13   2.0000      -0.803500       -21.8643
  14   2.0000      -0.696511       -18.9530
  15   2.0000      -0.679955       -18.5025
  16   2.0000      -0.612641       -16.6708
  17   2.0000      -0.564316       -15.3558
  18   2.0000      -0.545470       -14.8430
  19   2.0000      -0.526399       -14.3241
  20   2.0000      -0.496681       -13.5154
  21   2.0000      -0.467198       -12.7131
  22   2.0000      -0.458763       -12.4836
  23   2.0000      -0.433601       -11.7989
  24   2.0000      -0.413667       -11.2565
  25   2.0000      -0.406143       -11.0517
  26   2.0000      -0.349503        -9.5105
  27   2.0000      -0.332999        -9.0614
  28   2.0000      -0.293037        -7.9739
  29   2.0000      -0.285069        -7.7571
  30   2.0000      -0.280318        -7.6278
  31   2.0000      -0.257942        -7.0190
  32   0.0000      -0.079270        -2.1570
  33   0.0000      -0.055680        -1.5151
  34   0.0000       0.039815         1.0834
  35   0.0000       0.040450         1.1007
  36   0.0000       0.053823         1.4646

MULLIKEN ATOMIC CHARGES
-----------------------
   0 N :   -0.252742
   1 C :    0.024101
   2 C :    0.084454
   3 N :   -0.222997
   4 C :    0.035510
   5 C :    0.002687
   6 C :    0.430064
   7 N :   -0.455602
   8 O :   -0.414987
   9 H :    0.125488
  10 H :    0.094905
  11 H :    0.089944
  12 H :    0.226484
  13 H :    0.232692
Sum of atomic charges:   -0.0000000

LOEWDIN ATOMIC CHARGES
----------------------
   0 N :   -0.090683
   1 C :   -0.040326
   2 C :    0.083056
   3 N :   -0.075321
   4 C :    0.057749
   5 C :    0.050226
   6 C :    0.138094
   7 N :    0.037898
   8 O :   -0.253842
   9 H :    0.009636
  10 H :   -0.000763
  11 H :   -0.001500
  12 H :    0.045312
  13 H :    0.040464

  Mayer bond orders larger than 0.100000
B(  0-N ,  1-C ) :   1.4192 B(  0-N ,  5-C ) :   1.5165 B(  1-C ,  2-C ) :   1.3387
B(  1-C ,  6-C ) :   0.9167 B(  2-C ,  3-N ) :   1.4558 B(  2-C ,  9-H ) :   0.9479
B(  3-N ,  4-C ) :   1.4701 B(  4-C ,  5-C ) :   1.3486 B(  4-C , 10-H ) :   0.9656
B(  5-C , 11-H ) :   0.9666 B(  6-C ,  7-N ) :   1.1384 B(  6-C ,  8-O ) :   1.9193
B(  7-N ,  8-O ) :   0.1011 B(  7-N , 12-H ) :   0.9486 B(  7-N , 13-H ) :   0.9213

FINAL SINGLE POINT ENERGY      -432.907648197709

DIPOLE MOMENT
-------------
                                X             Y             Z
Electronic contribution:      0.13712      -1.49973      -0.41788
Nuclear contribution   :     -0.55863       2.92513       0.82957
                        -----------------------------------------
Total Dipole Moment    :     -0.42152       1.42540       0.41169
                        -----------------------------------------
Magnitude (a.u.)       :      1.54238
Magnitude (Debye)      :      3.92042

Rotational constants in cm-1:     0.132276     0.043210     0.032570
Rotational constants in MHz :  3965.533791  1295.396742   976.431753

CHEMICAL SHIELDING SUMMARY (ppm)
--------------------------------

  Nucleus  Element    Isotropic     Anisotropy
  -------  -------  ------------   ------------
      0       N          -93.523       -452.997
      1       C           32.852        162.351
      2       C           30.802        183.369
      3       N         -125.325       -529.206
      4       C           29.491        172.159
      5       C           35.767        161.821
      6       C           16.866        107.459
      7       N          155.880        110.302
      8       O          -63.488        625.141
      9       H           22.562          8.104
     10       H           23.349          5.421
     11       H           23.696          5.252
     12       H           27.492         10.450
     13       H           24.878          8.619

                             ****ORCA TERMINATED NORMALLY****
TOTAL RUN TIME: 0 days 0 hours 8 minutes 15 seconds 856 msec
